    1C
    1UUSER                                                              
    1UDATE              06.december.2024                                
    1UTIME              02:51:14                                        
    1UHOST                                                              
    1UPGM               CalculiX                                        
    1UVERSION           Version 2.21                             
    1UCOMPILETIME       Fri Sep 13 16:40:02 CST 2024                    
    1UDIR                                                               
    1UDBN                                                               
    1UMAT    1DEPOSIT                                                   
    2C                          4394                                     1
 -1       171 1.35000E+01 2.60000E+01 5.00000E-01
 -1       172 1.25000E+01 2.60000E+01 5.00000E-01
 -1       173 1.25000E+01 2.00000E+01 5.00000E-01
 -1       174 7.50000E+00 2.00000E+01 5.00000E-01
 -1       175 7.50000E+00 2.60000E+01 5.00000E-01
 -1       176 6.50000E+00 2.60000E+01 5.00000E-01
 -1       177 6.50000E+00 2.50000E+01 5.00000E-01
 -1       178 5.00000E+00 2.50000E+01 5.00000E-01
 -1       179 5.00000E+00 5.00000E+00 5.00000E-01
 -1       180 1.00000E+01 5.00000E+00 5.00000E-01
 -1       181 1.50000E+01 1.00000E+01 5.00000E-01
 -1       182 1.35000E+01 2.35707E+01 5.00000E-01
 -1       183 1.50000E+01 2.00000E+01 5.00000E-01
 -1       184 7.50000E+00 2.80000E+01 5.00000E-01
 -1       185 7.50000E+00 4.00000E+01 5.00000E-01
 -1       186 1.25000E+01 4.00000E+01 5.00000E-01
 -1       187 1.25000E+01 2.80000E+01 5.00000E-01
 -1       188 1.35000E+01 2.80000E+01 5.00000E-01
 -1       189 1.35000E+01 2.95139E+01 5.00000E-01
 -1       190 2.00000E+01 2.05000E+01 5.00000E-01
 -1       191 2.00000E+01 9.50000E+00 5.00000E-01
 -1       192 1.05000E+01-3.55271E-15 5.00000E-01
 -1       193 0.00000E+00 0.00000E+00 5.00000E-01
 -1       194 6.50000E+00 2.80000E+01 5.00000E-01
 -1       195 0.00000E+00 3.00000E+01 5.00000E-01
 -1       196 6.50000E+00 3.00000E+01 5.00000E-01
 -1       201 1.35000E+01 2.35707E+01 0.00000E+00
 -1       202 1.35000E+01 2.60000E+01 0.00000E+00
 -1       203 1.50000E+01 2.00000E+01 0.00000E+00
 -1       204 1.25000E+01 2.60000E+01 0.00000E+00
 -1       205 1.50000E+01 1.00000E+01 0.00000E+00
 -1       206 1.25000E+01 2.00000E+01 0.00000E+00
 -1       207 1.00000E+01 5.00000E+00 0.00000E+00
 -1       208 7.50000E+00 2.00000E+01 0.00000E+00
 -1       209 5.00000E+00 5.00000E+00 0.00000E+00
 -1       210 7.50000E+00 2.60000E+01 0.00000E+00
 -1       211 5.00000E+00 2.50000E+01 0.00000E+00
 -1       212 6.50000E+00 2.60000E+01 0.00000E+00
 -1       213 6.50000E+00 2.50000E+01 0.00000E+00
 -1       214 1.35000E+01 2.80000E+01 0.00000E+00
 -1       215 1.35000E+01 2.95139E+01 0.00000E+00
 -1       216 1.25000E+01 2.80000E+01 0.00000E+00
 -1       217 2.00000E+01 2.05000E+01 0.00000E+00
 -1       218 1.25000E+01 4.00000E+01 0.00000E+00
 -1       219 2.00000E+01 9.50000E+00 0.00000E+00
 -1       220 7.50000E+00 4.00000E+01 0.00000E+00
 -1       221 1.05000E+01-3.55271E-15 0.00000E+00
 -1       222 7.50000E+00 2.80000E+01 0.00000E+00
 -1       223 0.00000E+00 0.00000E+00 0.00000E+00
 -1       224 6.50000E+00 2.80000E+01 0.00000E+00
 -1       225 0.00000E+00 3.00000E+01 0.00000E+00
 -1       226 6.50000E+00 3.00000E+01 0.00000E+00
 -1      3084 1.35000E+01 2.40566E+01 5.00000E-01
 -1      3085 1.35000E+01 2.45424E+01 5.00000E-01
 -1      3086 1.35000E+01 2.50283E+01 5.00000E-01
 -1      3087 1.35000E+01 2.55141E+01 5.00000E-01
 -1      3088 1.30000E+01 2.60000E+01 5.00000E-01
 -1      3089 1.25000E+01 2.05000E+01 5.00000E-01
 -1      3090 1.25000E+01 2.10000E+01 5.00000E-01
 -1      3091 1.25000E+01 2.15000E+01 5.00000E-01
 -1      3092 1.25000E+01 2.20000E+01 5.00000E-01
 -1      3093 1.25000E+01 2.25000E+01 5.00000E-01
 -1      3094 1.25000E+01 2.30000E+01 5.00000E-01
 -1      3095 1.25000E+01 2.35000E+01 5.00000E-01
 -1      3096 1.25000E+01 2.40000E+01 5.00000E-01
 -1      3097 1.25000E+01 2.45000E+01 5.00000E-01
 -1      3098 1.25000E+01 2.50000E+01 5.00000E-01
 -1      3099 1.25000E+01 2.55000E+01 5.00000E-01
 -1      3100 1.20000E+01 2.00000E+01 5.00000E-01
 -1      3101 1.15000E+01 2.00000E+01 5.00000E-01
 -1      3102 1.10000E+01 2.00000E+01 5.00000E-01
 -1      3103 1.05000E+01 2.00000E+01 5.00000E-01
 -1      3104 1.00000E+01 2.00000E+01 5.00000E-01
 -1      3105 9.50000E+00 2.00000E+01 5.00000E-01
 -1      3106 9.00000E+00 2.00000E+01 5.00000E-01
 -1      3107 8.50000E+00 2.00000E+01 5.00000E-01
 -1      3108 8.00000E+00 2.00000E+01 5.00000E-01
 -1      3109 7.50000E+00 2.05000E+01 5.00000E-01
 -1      3110 7.50000E+00 2.10000E+01 5.00000E-01
 -1      3111 7.50000E+00 2.15000E+01 5.00000E-01
 -1      3112 7.50000E+00 2.20000E+01 5.00000E-01
 -1      3113 7.50000E+00 2.25000E+01 5.00000E-01
 -1      3114 7.50000E+00 2.30000E+01 5.00000E-01
 -1      3115 7.50000E+00 2.35000E+01 5.00000E-01
 -1      3116 7.50000E+00 2.40000E+01 5.00000E-01
 -1      3117 7.50000E+00 2.45000E+01 5.00000E-01
 -1      3118 7.50000E+00 2.50000E+01 5.00000E-01
 -1      3119 7.50000E+00 2.55000E+01 5.00000E-01
 -1      3120 7.00000E+00 2.60000E+01 5.00000E-01
 -1      3121 6.50000E+00 2.55000E+01 5.00000E-01
 -1      3122 6.00000E+00 2.50000E+01 5.00000E-01
 -1      3123 5.50000E+00 2.50000E+01 5.00000E-01
 -1      3124 5.00000E+00 5.50000E+00 5.00000E-01
 -1      3125 5.00000E+00 6.00000E+00 5.00000E-01
 -1      3126 5.00000E+00 6.50000E+00 5.00000E-01
 -1      3127 5.00000E+00 7.00000E+00 5.00000E-01
 -1      3128 5.00000E+00 7.50000E+00 5.00000E-01
 -1      3129 5.00000E+00 8.00000E+00 5.00000E-01
 -1      3130 5.00000E+00 8.50000E+00 5.00000E-01
 -1      3131 5.00000E+00 9.00000E+00 5.00000E-01
 -1      3132 5.00000E+00 9.50000E+00 5.00000E-01
 -1      3133 5.00000E+00 1.00000E+01 5.00000E-01
 -1      3134 5.00000E+00 1.05000E+01 5.00000E-01
 -1      3135 5.00000E+00 1.10000E+01 5.00000E-01
 -1      3136 5.00000E+00 1.15000E+01 5.00000E-01
 -1      3137 5.00000E+00 1.20000E+01 5.00000E-01
 -1      3138 5.00000E+00 1.25000E+01 5.00000E-01
 -1      3139 5.00000E+00 1.30000E+01 5.00000E-01
 -1      3140 5.00000E+00 1.35000E+01 5.00000E-01
 -1      3141 5.00000E+00 1.40000E+01 5.00000E-01
 -1      3142 5.00000E+00 1.45000E+01 5.00000E-01
 -1      3143 5.00000E+00 1.50000E+01 5.00000E-01
 -1      3144 5.00000E+00 1.55000E+01 5.00000E-01
 -1      3145 5.00000E+00 1.60000E+01 5.00000E-01
 -1      3146 5.00000E+00 1.65000E+01 5.00000E-01
 -1      3147 5.00000E+00 1.70000E+01 5.00000E-01
 -1      3148 5.00000E+00 1.75000E+01 5.00000E-01
 -1      3149 5.00000E+00 1.80000E+01 5.00000E-01
 -1      3150 5.00000E+00 1.85000E+01 5.00000E-01
 -1      3151 5.00000E+00 1.90000E+01 5.00000E-01
 -1      3152 5.00000E+00 1.95000E+01 5.00000E-01
 -1      3153 5.00000E+00 2.00000E+01 5.00000E-01
 -1      3154 5.00000E+00 2.05000E+01 5.00000E-01
 -1      3155 5.00000E+00 2.10000E+01 5.00000E-01
 -1      3156 5.00000E+00 2.15000E+01 5.00000E-01
 -1      3157 5.00000E+00 2.20000E+01 5.00000E-01
 -1      3158 5.00000E+00 2.25000E+01 5.00000E-01
 -1      3159 5.00000E+00 2.30000E+01 5.00000E-01
 -1      3160 5.00000E+00 2.35000E+01 5.00000E-01
 -1      3161 5.00000E+00 2.40000E+01 5.00000E-01
 -1      3162 5.00000E+00 2.45000E+01 5.00000E-01
 -1      3163 9.50000E+00 5.00000E+00 5.00000E-01
 -1      3164 9.00000E+00 5.00000E+00 5.00000E-01
 -1      3165 8.50000E+00 5.00000E+00 5.00000E-01
 -1      3166 8.00000E+00 5.00000E+00 5.00000E-01
 -1      3167 7.50000E+00 5.00000E+00 5.00000E-01
 -1      3168 7.00000E+00 5.00000E+00 5.00000E-01
 -1      3169 6.50000E+00 5.00000E+00 5.00000E-01
 -1      3170 6.00000E+00 5.00000E+00 5.00000E-01
 -1      3171 5.50000E+00 5.00000E+00 5.00000E-01
 -1      3172 1.04901E+01 5.02408E+00 5.00000E-01
 -1      3173 1.09755E+01 5.09607E+00 5.00000E-01
 -1      3174 1.14514E+01 5.21530E+00 5.00000E-01
 -1      3175 1.19134E+01 5.38060E+00 5.00000E-01
 -1      3176 1.23570E+01 5.59039E+00 5.00000E-01
 -1      3177 1.27779E+01 5.84265E+00 5.00000E-01
 -1      3178 1.31720E+01 6.13495E+00 5.00000E-01
 -1      3179 1.35355E+01 6.46447E+00 5.00000E-01
 -1      3180 1.38651E+01 6.82803E+00 5.00000E-01
 -1      3181 1.41573E+01 7.22215E+00 5.00000E-01
 -1      3182 1.44096E+01 7.64302E+00 5.00000E-01
 -1      3183 1.46194E+01 8.08658E+00 5.00000E-01
 -1      3184 1.47847E+01 8.54858E+00 5.00000E-01
 -1      3185 1.49039E+01 9.02455E+00 5.00000E-01
 -1      3186 1.49759E+01 9.50991E+00 5.00000E-01
 -1      3187 1.50000E+01 1.05000E+01 5.00000E-01
 -1      3188 1.50000E+01 1.10000E+01 5.00000E-01
 -1      3189 1.50000E+01 1.15000E+01 5.00000E-01
 -1      3190 1.50000E+01 1.20000E+01 5.00000E-01
 -1      3191 1.50000E+01 1.25000E+01 5.00000E-01
 -1      3192 1.50000E+01 1.30000E+01 5.00000E-01
 -1      3193 1.50000E+01 1.35000E+01 5.00000E-01
 -1      3194 1.50000E+01 1.40000E+01 5.00000E-01
 -1      3195 1.50000E+01 1.45000E+01 5.00000E-01
 -1      3196 1.50000E+01 1.50000E+01 5.00000E-01
 -1      3197 1.50000E+01 1.55000E+01 5.00000E-01
 -1      3198 1.50000E+01 1.60000E+01 5.00000E-01
 -1      3199 1.50000E+01 1.65000E+01 5.00000E-01
 -1      3200 1.50000E+01 1.70000E+01 5.00000E-01
 -1      3201 1.50000E+01 1.75000E+01 5.00000E-01
 -1      3202 1.50000E+01 1.80000E+01 5.00000E-01
 -1      3203 1.50000E+01 1.85000E+01 5.00000E-01
 -1      3204 1.50000E+01 1.90000E+01 5.00000E-01
 -1      3205 1.50000E+01 1.95000E+01 5.00000E-01
 -1      3206 1.49753E+01 2.04963E+01 5.00000E-01
 -1      3207 1.49015E+01 2.09877E+01 5.00000E-01
 -1      3208 1.47792E+01 2.14694E+01 5.00000E-01
 -1      3209 1.46098E+01 2.19365E+01 5.00000E-01
 -1      3210 1.43948E+01 2.23845E+01 5.00000E-01
 -1      3211 1.41364E+01 2.28090E+01 5.00000E-01
 -1      3212 1.38371E+01 2.32057E+01 5.00000E-01
 -1      3213 7.50000E+00 2.85000E+01 5.00000E-01
 -1      3214 7.50000E+00 2.90000E+01 5.00000E-01
 -1      3215 7.50000E+00 2.95000E+01 5.00000E-01
 -1      3216 7.50000E+00 3.00000E+01 5.00000E-01
 -1      3217 7.50000E+00 3.05000E+01 5.00000E-01
 -1      3218 7.50000E+00 3.10000E+01 5.00000E-01
 -1      3219 7.50000E+00 3.15000E+01 5.00000E-01
 -1      3220 7.50000E+00 3.20000E+01 5.00000E-01
 -1      3221 7.50000E+00 3.25000E+01 5.00000E-01
 -1      3222 7.50000E+00 3.30000E+01 5.00000E-01
 -1      3223 7.50000E+00 3.35000E+01 5.00000E-01
 -1      3224 7.50000E+00 3.40000E+01 5.00000E-01
 -1      3225 7.50000E+00 3.45000E+01 5.00000E-01
 -1      3226 7.50000E+00 3.50000E+01 5.00000E-01
 -1      3227 7.50000E+00 3.55000E+01 5.00000E-01
 -1      3228 7.50000E+00 3.60000E+01 5.00000E-01
 -1      3229 7.50000E+00 3.65000E+01 5.00000E-01
 -1      3230 7.50000E+00 3.70000E+01 5.00000E-01
 -1      3231 7.50000E+00 3.75000E+01 5.00000E-01
 -1      3232 7.50000E+00 3.80000E+01 5.00000E-01
 -1      3233 7.50000E+00 3.85000E+01 5.00000E-01
 -1      3234 7.50000E+00 3.90000E+01 5.00000E-01
 -1      3235 7.50000E+00 3.95000E+01 5.00000E-01
 -1      3236 1.20000E+01 4.00000E+01 5.00000E-01
 -1      3237 1.15000E+01 4.00000E+01 5.00000E-01
 -1      3238 1.10000E+01 4.00000E+01 5.00000E-01
 -1      3239 1.05000E+01 4.00000E+01 5.00000E-01
 -1      3240 1.00000E+01 4.00000E+01 5.00000E-01
 -1      3241 9.50000E+00 4.00000E+01 5.00000E-01
 -1      3242 9.00000E+00 4.00000E+01 5.00000E-01
 -1      3243 8.50000E+00 4.00000E+01 5.00000E-01
 -1      3244 8.00000E+00 4.00000E+01 5.00000E-01
 -1      3245 1.25000E+01 2.85000E+01 5.00000E-01
 -1      3246 1.25000E+01 2.90000E+01 5.00000E-01
 -1      3247 1.25000E+01 2.95000E+01 5.00000E-01
 -1      3248 1.25000E+01 3.00000E+01 5.00000E-01
 -1      3249 1.25000E+01 3.05000E+01 5.00000E-01
 -1      3250 1.25000E+01 3.10000E+01 5.00000E-01
 -1      3251 1.25000E+01 3.15000E+01 5.00000E-01
 -1      3252 1.25000E+01 3.20000E+01 5.00000E-01
 -1      3253 1.25000E+01 3.25000E+01 5.00000E-01
 -1      3254 1.25000E+01 3.30000E+01 5.00000E-01
 -1      3255 1.25000E+01 3.35000E+01 5.00000E-01
 -1      3256 1.25000E+01 3.40000E+01 5.00000E-01
 -1      3257 1.25000E+01 3.45000E+01 5.00000E-01
 -1      3258 1.25000E+01 3.50000E+01 5.00000E-01
 -1      3259 1.25000E+01 3.55000E+01 5.00000E-01
 -1      3260 1.25000E+01 3.60000E+01 5.00000E-01
 -1      3261 1.25000E+01 3.65000E+01 5.00000E-01
 -1      3262 1.25000E+01 3.70000E+01 5.00000E-01
 -1      3263 1.25000E+01 3.75000E+01 5.00000E-01
 -1      3264 1.25000E+01 3.80000E+01 5.00000E-01
 -1      3265 1.25000E+01 3.85000E+01 5.00000E-01
 -1      3266 1.25000E+01 3.90000E+01 5.00000E-01
 -1      3267 1.25000E+01 3.95000E+01 5.00000E-01
 -1      3268 1.30000E+01 2.80000E+01 5.00000E-01
 -1      3269 1.35000E+01 2.85046E+01 5.00000E-01
 -1      3270 1.35000E+01 2.90093E+01 5.00000E-01
 -1      3271 1.99871E+01 2.09944E+01 5.00000E-01
 -1      3272 1.99485E+01 2.14874E+01 5.00000E-01
 -1      3273 1.98844E+01 2.19778E+01 5.00000E-01
 -1      3274 1.97947E+01 2.24641E+01 5.00000E-01
 -1      3275 1.96799E+01 2.29451E+01 5.00000E-01
 -1      3276 1.95403E+01 2.34196E+01 5.00000E-01
 -1      3277 1.93761E+01 2.38860E+01 5.00000E-01
 -1      3278 1.91878E+01 2.43434E+01 5.00000E-01
 -1      3279 1.89761E+01 2.47903E+01 5.00000E-01
 -1      3280 1.87413E+01 2.52255E+01 5.00000E-01
 -1      3281 1.84842E+01 2.56480E+01 5.00000E-01
 -1      3282 1.82055E+01 2.60565E+01 5.00000E-01
 -1      3283 1.79059E+01 2.64500E+01 5.00000E-01
 -1      3284 1.75863E+01 2.68273E+01 5.00000E-01
 -1      3285 1.72474E+01 2.71875E+01 5.00000E-01
 -1      3286 1.68902E+01 2.75296E+01 5.00000E-01
 -1      3287 1.65158E+01 2.78526E+01 5.00000E-01
 -1      3288 1.61250E+01 2.81557E+01 5.00000E-01
 -1      3289 1.57190E+01 2.84380E+01 5.00000E-01
 -1      3290 1.52988E+01 2.86989E+01 5.00000E-01
 -1      3291 1.48656E+01 2.89375E+01 5.00000E-01
 -1      3292 1.44206E+01 2.91532E+01 5.00000E-01
 -1      3293 1.39650E+01 2.93455E+01 5.00000E-01
 -1      3294 2.00000E+01 1.00000E+01 5.00000E-01
 -1      3295 2.00000E+01 1.05000E+01 5.00000E-01
 -1      3296 2.00000E+01 1.10000E+01 5.00000E-01
 -1      3297 2.00000E+01 1.15000E+01 5.00000E-01
 -1      3298 2.00000E+01 1.20000E+01 5.00000E-01
 -1      3299 2.00000E+01 1.25000E+01 5.00000E-01
 -1      3300 2.00000E+01 1.30000E+01 5.00000E-01
 -1      3301 2.00000E+01 1.35000E+01 5.00000E-01
 -1      3302 2.00000E+01 1.40000E+01 5.00000E-01
 -1      3303 2.00000E+01 1.45000E+01 5.00000E-01
 -1      3304 2.00000E+01 1.50000E+01 5.00000E-01
 -1      3305 2.00000E+01 1.55000E+01 5.00000E-01
 -1      3306 2.00000E+01 1.60000E+01 5.00000E-01
 -1      3307 2.00000E+01 1.65000E+01 5.00000E-01
 -1      3308 2.00000E+01 1.70000E+01 5.00000E-01
 -1      3309 2.00000E+01 1.75000E+01 5.00000E-01
 -1      3310 2.00000E+01 1.80000E+01 5.00000E-01
 -1      3311 2.00000E+01 1.85000E+01 5.00000E-01
 -1      3312 2.00000E+01 1.90000E+01 5.00000E-01
 -1      3313 2.00000E+01 1.95000E+01 5.00000E-01
 -1      3314 2.00000E+01 2.00000E+01 5.00000E-01
 -1      3315 1.09972E+01 1.30194E-02 5.00000E-01
 -1      3316 1.14930E+01 5.20420E-02 5.00000E-01
 -1      3317 1.19861E+01 1.16961E-01 5.00000E-01
 -1      3318 1.24752E+01 2.07598E-01 5.00000E-01
 -1      3319 1.29588E+01 3.23705E-01 5.00000E-01
 -1      3320 1.34357E+01 4.64963E-01 5.00000E-01
 -1      3321 1.39045E+01 6.30986E-01 5.00000E-01
 -1      3322 1.43640E+01 8.21318E-01 5.00000E-01
 -1      3323 1.48129E+01 1.03544E+00 5.00000E-01
 -1      3324 1.52500E+01 1.27276E+00 5.00000E-01
 -1      3325 1.56741E+01 1.53263E+00 5.00000E-01
 -1      3326 1.60840E+01 1.81434E+00 5.00000E-01
 -1      3327 1.64785E+01 2.11711E+00 5.00000E-01
 -1      3328 1.68567E+01 2.44012E+00 5.00000E-01
 -1      3329 1.72175E+01 2.78249E+00 5.00000E-01
 -1      3330 1.75599E+01 3.14326E+00 5.00000E-01
 -1      3331 1.78829E+01 3.52146E+00 5.00000E-01
 -1      3332 1.81857E+01 3.91604E+00 5.00000E-01
 -1      3333 1.84674E+01 4.32593E+00 5.00000E-01
 -1      3334 1.87272E+01 4.75000E+00 5.00000E-01
 -1      3335 1.89646E+01 5.18709E+00 5.00000E-01
 -1      3336 1.91787E+01 5.63600E+00 5.00000E-01
 -1      3337 1.93690E+01 6.09550E+00 5.00000E-01
 -1      3338 1.95350E+01 6.56434E+00 5.00000E-01
 -1      3339 1.96763E+01 7.04122E+00 5.00000E-01
 -1      3340 1.97924E+01 7.52484E+00 5.00000E-01
 -1      3341 1.98830E+01 8.01387E+00 5.00000E-01
 -1      3342 1.99480E+01 8.50698E+00 5.00000E-01
 -1      3343 1.99870E+01 9.00281E+00 5.00000E-01
 -1      3344 1.00000E+01 0.00000E+00 5.00000E-01
 -1      3345 9.50000E+00 0.00000E+00 5.00000E-01
 -1      3346 9.00000E+00 0.00000E+00 5.00000E-01
 -1      3347 8.50000E+00 0.00000E+00 5.00000E-01
 -1      3348 8.00000E+00 0.00000E+00 5.00000E-01
 -1      3349 7.50000E+00 0.00000E+00 5.00000E-01
 -1      3350 7.00000E+00 0.00000E+00 5.00000E-01
 -1      3351 6.50000E+00 0.00000E+00 5.00000E-01
 -1      3352 6.00000E+00 0.00000E+00 5.00000E-01
 -1      3353 5.50000E+00 0.00000E+00 5.00000E-01
 -1      3354 5.00000E+00 0.00000E+00 5.00000E-01
 -1      3355 4.50000E+00 0.00000E+00 5.00000E-01
 -1      3356 4.00000E+00 0.00000E+00 5.00000E-01
 -1      3357 3.50000E+00 0.00000E+00 5.00000E-01
 -1      3358 3.00000E+00 0.00000E+00 5.00000E-01
 -1      3359 2.50000E+00 0.00000E+00 5.00000E-01
 -1      3360 2.00000E+00 0.00000E+00 5.00000E-01
 -1      3361 1.50000E+00 0.00000E+00 5.00000E-01
 -1      3362 1.00000E+00 0.00000E+00 5.00000E-01
 -1      3363 5.00000E-01 0.00000E+00 5.00000E-01
 -1      3364 7.00000E+00 2.80000E+01 5.00000E-01
 -1      3365 6.50000E+00 2.85000E+01 5.00000E-01
 -1      3366 6.50000E+00 2.90000E+01 5.00000E-01
 -1      3367 6.50000E+00 2.95000E+01 5.00000E-01
 -1      3368 6.00000E+00 3.00000E+01 5.00000E-01
 -1      3369 5.50000E+00 3.00000E+01 5.00000E-01
 -1      3370 5.00000E+00 3.00000E+01 5.00000E-01
 -1      3371 4.50000E+00 3.00000E+01 5.00000E-01
 -1      3372 4.00000E+00 3.00000E+01 5.00000E-01
 -1      3373 3.50000E+00 3.00000E+01 5.00000E-01
 -1      3374 3.00000E+00 3.00000E+01 5.00000E-01
 -1      3375 2.50000E+00 3.00000E+01 5.00000E-01
 -1      3376 2.00000E+00 3.00000E+01 5.00000E-01
 -1      3377 1.50000E+00 3.00000E+01 5.00000E-01
 -1      3378 1.00000E+00 3.00000E+01 5.00000E-01
 -1      3379 5.00000E-01 3.00000E+01 5.00000E-01
 -1      3380 0.00000E+00 5.00000E-01 5.00000E-01
 -1      3381 0.00000E+00 1.00000E+00 5.00000E-01
 -1      3382 0.00000E+00 1.50000E+00 5.00000E-01
 -1      3383 0.00000E+00 2.00000E+00 5.00000E-01
 -1      3384 0.00000E+00 2.50000E+00 5.00000E-01
 -1      3385 0.00000E+00 3.00000E+00 5.00000E-01
 -1      3386 0.00000E+00 3.50000E+00 5.00000E-01
 -1      3387 0.00000E+00 4.00000E+00 5.00000E-01
 -1      3388 0.00000E+00 4.50000E+00 5.00000E-01
 -1      3389 0.00000E+00 5.00000E+00 5.00000E-01
 -1      3390 0.00000E+00 5.50000E+00 5.00000E-01
 -1      3391 0.00000E+00 6.00000E+00 5.00000E-01
 -1      3392 0.00000E+00 6.50000E+00 5.00000E-01
 -1      3393 0.00000E+00 7.00000E+00 5.00000E-01
 -1      3394 0.00000E+00 7.50000E+00 5.00000E-01
 -1      3395 0.00000E+00 8.00000E+00 5.00000E-01
 -1      3396 0.00000E+00 8.50000E+00 5.00000E-01
 -1      3397 0.00000E+00 9.00000E+00 5.00000E-01
 -1      3398 0.00000E+00 9.50000E+00 5.00000E-01
 -1      3399 0.00000E+00 1.00000E+01 5.00000E-01
 -1      3400 0.00000E+00 1.05000E+01 5.00000E-01
 -1      3401 0.00000E+00 1.10000E+01 5.00000E-01
 -1      3402 0.00000E+00 1.15000E+01 5.00000E-01
 -1      3403 0.00000E+00 1.20000E+01 5.00000E-01
 -1      3404 0.00000E+00 1.25000E+01 5.00000E-01
 -1      3405 0.00000E+00 1.30000E+01 5.00000E-01
 -1      3406 0.00000E+00 1.35000E+01 5.00000E-01
 -1      3407 0.00000E+00 1.40000E+01 5.00000E-01
 -1      3408 0.00000E+00 1.45000E+01 5.00000E-01
 -1      3409 0.00000E+00 1.50000E+01 5.00000E-01
 -1      3410 0.00000E+00 1.55000E+01 5.00000E-01
 -1      3411 0.00000E+00 1.60000E+01 5.00000E-01
 -1      3412 0.00000E+00 1.65000E+01 5.00000E-01
 -1      3413 0.00000E+00 1.70000E+01 5.00000E-01
 -1      3414 0.00000E+00 1.75000E+01 5.00000E-01
 -1      3415 0.00000E+00 1.80000E+01 5.00000E-01
 -1      3416 0.00000E+00 1.85000E+01 5.00000E-01
 -1      3417 0.00000E+00 1.90000E+01 5.00000E-01
 -1      3418 0.00000E+00 1.95000E+01 5.00000E-01
 -1      3419 0.00000E+00 2.00000E+01 5.00000E-01
 -1      3420 0.00000E+00 2.05000E+01 5.00000E-01
 -1      3421 0.00000E+00 2.10000E+01 5.00000E-01
 -1      3422 0.00000E+00 2.15000E+01 5.00000E-01
 -1      3423 0.00000E+00 2.20000E+01 5.00000E-01
 -1      3424 0.00000E+00 2.25000E+01 5.00000E-01
 -1      3425 0.00000E+00 2.30000E+01 5.00000E-01
 -1      3426 0.00000E+00 2.35000E+01 5.00000E-01
 -1      3427 0.00000E+00 2.40000E+01 5.00000E-01
 -1      3428 0.00000E+00 2.45000E+01 5.00000E-01
 -1      3429 0.00000E+00 2.50000E+01 5.00000E-01
 -1      3430 0.00000E+00 2.55000E+01 5.00000E-01
 -1      3431 0.00000E+00 2.60000E+01 5.00000E-01
 -1      3432 0.00000E+00 2.65000E+01 5.00000E-01
 -1      3433 0.00000E+00 2.70000E+01 5.00000E-01
 -1      3434 0.00000E+00 2.75000E+01 5.00000E-01
 -1      3435 0.00000E+00 2.80000E+01 5.00000E-01
 -1      3436 0.00000E+00 2.85000E+01 5.00000E-01
 -1      3437 0.00000E+00 2.90000E+01 5.00000E-01
 -1      3438 0.00000E+00 2.95000E+01 5.00000E-01
 -1      3515 1.35000E+01 2.40566E+01 0.00000E+00
 -1      3516 1.35000E+01 2.45424E+01 0.00000E+00
 -1      3517 1.35000E+01 2.50283E+01 0.00000E+00
 -1      3518 1.35000E+01 2.55141E+01 0.00000E+00
 -1      3519 1.30000E+01 2.60000E+01 0.00000E+00
 -1      3520 1.25000E+01 2.05000E+01 0.00000E+00
 -1      3521 1.25000E+01 2.10000E+01 0.00000E+00
 -1      3522 1.25000E+01 2.15000E+01 0.00000E+00
 -1      3523 1.25000E+01 2.20000E+01 0.00000E+00
 -1      3524 1.25000E+01 2.25000E+01 0.00000E+00
 -1      3525 1.25000E+01 2.30000E+01 0.00000E+00
 -1      3526 1.25000E+01 2.35000E+01 0.00000E+00
 -1      3527 1.25000E+01 2.40000E+01 0.00000E+00
 -1      3528 1.25000E+01 2.45000E+01 0.00000E+00
 -1      3529 1.25000E+01 2.50000E+01 0.00000E+00
 -1      3530 1.25000E+01 2.55000E+01 0.00000E+00
 -1      3531 8.00000E+00 2.00000E+01 0.00000E+00
 -1      3532 8.50000E+00 2.00000E+01 0.00000E+00
 -1      3533 9.00000E+00 2.00000E+01 0.00000E+00
 -1      3534 9.50000E+00 2.00000E+01 0.00000E+00
 -1      3535 1.00000E+01 2.00000E+01 0.00000E+00
 -1      3536 1.05000E+01 2.00000E+01 0.00000E+00
 -1      3537 1.10000E+01 2.00000E+01 0.00000E+00
 -1      3538 1.15000E+01 2.00000E+01 0.00000E+00
 -1      3539 1.20000E+01 2.00000E+01 0.00000E+00
 -1      3540 7.50000E+00 2.05000E+01 0.00000E+00
 -1      3541 7.50000E+00 2.10000E+01 0.00000E+00
 -1      3542 7.50000E+00 2.15000E+01 0.00000E+00
 -1      3543 7.50000E+00 2.20000E+01 0.00000E+00
 -1      3544 7.50000E+00 2.25000E+01 0.00000E+00
 -1      3545 7.50000E+00 2.30000E+01 0.00000E+00
 -1      3546 7.50000E+00 2.35000E+01 0.00000E+00
 -1      3547 7.50000E+00 2.40000E+01 0.00000E+00
 -1      3548 7.50000E+00 2.45000E+01 0.00000E+00
 -1      3549 7.50000E+00 2.50000E+01 0.00000E+00
 -1      3550 7.50000E+00 2.55000E+01 0.00000E+00
 -1      3551 7.00000E+00 2.60000E+01 0.00000E+00
 -1      3552 6.50000E+00 2.55000E+01 0.00000E+00
 -1      3553 5.50000E+00 2.50000E+01 0.00000E+00
 -1      3554 6.00000E+00 2.50000E+01 0.00000E+00
 -1      3555 5.00000E+00 5.50000E+00 0.00000E+00
 -1      3556 5.00000E+00 6.00000E+00 0.00000E+00
 -1      3557 5.00000E+00 6.50000E+00 0.00000E+00
 -1      3558 5.00000E+00 7.00000E+00 0.00000E+00
 -1      3559 5.00000E+00 7.50000E+00 0.00000E+00
 -1      3560 5.00000E+00 8.00000E+00 0.00000E+00
 -1      3561 5.00000E+00 8.50000E+00 0.00000E+00
 -1      3562 5.00000E+00 9.00000E+00 0.00000E+00
 -1      3563 5.00000E+00 9.50000E+00 0.00000E+00
 -1      3564 5.00000E+00 1.00000E+01 0.00000E+00
 -1      3565 5.00000E+00 1.05000E+01 0.00000E+00
 -1      3566 5.00000E+00 1.10000E+01 0.00000E+00
 -1      3567 5.00000E+00 1.15000E+01 0.00000E+00
 -1      3568 5.00000E+00 1.20000E+01 0.00000E+00
 -1      3569 5.00000E+00 1.25000E+01 0.00000E+00
 -1      3570 5.00000E+00 1.30000E+01 0.00000E+00
 -1      3571 5.00000E+00 1.35000E+01 0.00000E+00
 -1      3572 5.00000E+00 1.40000E+01 0.00000E+00
 -1      3573 5.00000E+00 1.45000E+01 0.00000E+00
 -1      3574 5.00000E+00 1.50000E+01 0.00000E+00
 -1      3575 5.00000E+00 1.55000E+01 0.00000E+00
 -1      3576 5.00000E+00 1.60000E+01 0.00000E+00
 -1      3577 5.00000E+00 1.65000E+01 0.00000E+00
 -1      3578 5.00000E+00 1.70000E+01 0.00000E+00
 -1      3579 5.00000E+00 1.75000E+01 0.00000E+00
 -1      3580 5.00000E+00 1.80000E+01 0.00000E+00
 -1      3581 5.00000E+00 1.85000E+01 0.00000E+00
 -1      3582 5.00000E+00 1.90000E+01 0.00000E+00
 -1      3583 5.00000E+00 1.95000E+01 0.00000E+00
 -1      3584 5.00000E+00 2.00000E+01 0.00000E+00
 -1      3585 5.00000E+00 2.05000E+01 0.00000E+00
 -1      3586 5.00000E+00 2.10000E+01 0.00000E+00
 -1      3587 5.00000E+00 2.15000E+01 0.00000E+00
 -1      3588 5.00000E+00 2.20000E+01 0.00000E+00
 -1      3589 5.00000E+00 2.25000E+01 0.00000E+00
 -1      3590 5.00000E+00 2.30000E+01 0.00000E+00
 -1      3591 5.00000E+00 2.35000E+01 0.00000E+00
 -1      3592 5.00000E+00 2.40000E+01 0.00000E+00
 -1      3593 5.00000E+00 2.45000E+01 0.00000E+00
 -1      3594 5.50000E+00 5.00000E+00 0.00000E+00
 -1      3595 6.00000E+00 5.00000E+00 0.00000E+00
 -1      3596 6.50000E+00 5.00000E+00 0.00000E+00
 -1      3597 7.00000E+00 5.00000E+00 0.00000E+00
 -1      3598 7.50000E+00 5.00000E+00 0.00000E+00
 -1      3599 8.00000E+00 5.00000E+00 0.00000E+00
 -1      3600 8.50000E+00 5.00000E+00 0.00000E+00
 -1      3601 9.00000E+00 5.00000E+00 0.00000E+00
 -1      3602 9.50000E+00 5.00000E+00 0.00000E+00
 -1      3603 1.49759E+01 9.50991E+00 0.00000E+00
 -1      3604 1.49039E+01 9.02455E+00 0.00000E+00
 -1      3605 1.47847E+01 8.54858E+00 0.00000E+00
 -1      3606 1.46194E+01 8.08658E+00 0.00000E+00
 -1      3607 1.44096E+01 7.64302E+00 0.00000E+00
 -1      3608 1.41573E+01 7.22215E+00 0.00000E+00
 -1      3609 1.38651E+01 6.82803E+00 0.00000E+00
 -1      3610 1.35355E+01 6.46447E+00 0.00000E+00
 -1      3611 1.31720E+01 6.13495E+00 0.00000E+00
 -1      3612 1.27779E+01 5.84265E+00 0.00000E+00
 -1      3613 1.23570E+01 5.59039E+00 0.00000E+00
 -1      3614 1.19134E+01 5.38060E+00 0.00000E+00
 -1      3615 1.14514E+01 5.21530E+00 0.00000E+00
 -1      3616 1.09755E+01 5.09607E+00 0.00000E+00
 -1      3617 1.04901E+01 5.02408E+00 0.00000E+00
 -1      3618 1.50000E+01 1.05000E+01 0.00000E+00
 -1      3619 1.50000E+01 1.10000E+01 0.00000E+00
 -1      3620 1.50000E+01 1.15000E+01 0.00000E+00
 -1      3621 1.50000E+01 1.20000E+01 0.00000E+00
 -1      3622 1.50000E+01 1.25000E+01 0.00000E+00
 -1      3623 1.50000E+01 1.30000E+01 0.00000E+00
 -1      3624 1.50000E+01 1.35000E+01 0.00000E+00
 -1      3625 1.50000E+01 1.40000E+01 0.00000E+00
 -1      3626 1.50000E+01 1.45000E+01 0.00000E+00
 -1      3627 1.50000E+01 1.50000E+01 0.00000E+00
 -1      3628 1.50000E+01 1.55000E+01 0.00000E+00
 -1      3629 1.50000E+01 1.60000E+01 0.00000E+00
 -1      3630 1.50000E+01 1.65000E+01 0.00000E+00
 -1      3631 1.50000E+01 1.70000E+01 0.00000E+00
 -1      3632 1.50000E+01 1.75000E+01 0.00000E+00
 -1      3633 1.50000E+01 1.80000E+01 0.00000E+00
 -1      3634 1.50000E+01 1.85000E+01 0.00000E+00
 -1      3635 1.50000E+01 1.90000E+01 0.00000E+00
 -1      3636 1.50000E+01 1.95000E+01 0.00000E+00
 -1      3637 1.49753E+01 2.04963E+01 0.00000E+00
 -1      3638 1.49015E+01 2.09877E+01 0.00000E+00
 -1      3639 1.47792E+01 2.14694E+01 0.00000E+00
 -1      3640 1.46098E+01 2.19365E+01 0.00000E+00
 -1      3641 1.43948E+01 2.23845E+01 0.00000E+00
 -1      3642 1.41364E+01 2.28090E+01 0.00000E+00
 -1      3643 1.38371E+01 2.32057E+01 0.00000E+00
 -1      3644 7.50000E+00 2.85000E+01 0.00000E+00
 -1      3645 7.50000E+00 2.90000E+01 0.00000E+00
 -1      3646 7.50000E+00 2.95000E+01 0.00000E+00
 -1      3647 7.50000E+00 3.00000E+01 0.00000E+00
 -1      3648 7.50000E+00 3.05000E+01 0.00000E+00
 -1      3649 7.50000E+00 3.10000E+01 0.00000E+00
 -1      3650 7.50000E+00 3.15000E+01 0.00000E+00
 -1      3651 7.50000E+00 3.20000E+01 0.00000E+00
 -1      3652 7.50000E+00 3.25000E+01 0.00000E+00
 -1      3653 7.50000E+00 3.30000E+01 0.00000E+00
 -1      3654 7.50000E+00 3.35000E+01 0.00000E+00
 -1      3655 7.50000E+00 3.40000E+01 0.00000E+00
 -1      3656 7.50000E+00 3.45000E+01 0.00000E+00
 -1      3657 7.50000E+00 3.50000E+01 0.00000E+00
 -1      3658 7.50000E+00 3.55000E+01 0.00000E+00
 -1      3659 7.50000E+00 3.60000E+01 0.00000E+00
 -1      3660 7.50000E+00 3.65000E+01 0.00000E+00
 -1      3661 7.50000E+00 3.70000E+01 0.00000E+00
 -1      3662 7.50000E+00 3.75000E+01 0.00000E+00
 -1      3663 7.50000E+00 3.80000E+01 0.00000E+00
 -1      3664 7.50000E+00 3.85000E+01 0.00000E+00
 -1      3665 7.50000E+00 3.90000E+01 0.00000E+00
 -1      3666 7.50000E+00 3.95000E+01 0.00000E+00
 -1      3667 8.00000E+00 4.00000E+01 0.00000E+00
 -1      3668 8.50000E+00 4.00000E+01 0.00000E+00
 -1      3669 9.00000E+00 4.00000E+01 0.00000E+00
 -1      3670 9.50000E+00 4.00000E+01 0.00000E+00
 -1      3671 1.00000E+01 4.00000E+01 0.00000E+00
 -1      3672 1.05000E+01 4.00000E+01 0.00000E+00
 -1      3673 1.10000E+01 4.00000E+01 0.00000E+00
 -1      3674 1.15000E+01 4.00000E+01 0.00000E+00
 -1      3675 1.20000E+01 4.00000E+01 0.00000E+00
 -1      3676 1.25000E+01 2.85000E+01 0.00000E+00
 -1      3677 1.25000E+01 2.90000E+01 0.00000E+00
 -1      3678 1.25000E+01 2.95000E+01 0.00000E+00
 -1      3679 1.25000E+01 3.00000E+01 0.00000E+00
 -1      3680 1.25000E+01 3.05000E+01 0.00000E+00
 -1      3681 1.25000E+01 3.10000E+01 0.00000E+00
 -1      3682 1.25000E+01 3.15000E+01 0.00000E+00
 -1      3683 1.25000E+01 3.20000E+01 0.00000E+00
 -1      3684 1.25000E+01 3.25000E+01 0.00000E+00
 -1      3685 1.25000E+01 3.30000E+01 0.00000E+00
 -1      3686 1.25000E+01 3.35000E+01 0.00000E+00
 -1      3687 1.25000E+01 3.40000E+01 0.00000E+00
 -1      3688 1.25000E+01 3.45000E+01 0.00000E+00
 -1      3689 1.25000E+01 3.50000E+01 0.00000E+00
 -1      3690 1.25000E+01 3.55000E+01 0.00000E+00